    4    4    1    1
  0.1358961E+02  0.3788107E-09  0.3788107E-09  0.3788107E-09  0.5000000E-15
  1.000000000000000E-004
  CAR 
 WO3bulkRT      !Header                  
     24   3276     32
 
  0.0000000E+00  0.0000000E+00  0.0000000E+00  0.8000000E-05
    1      -17.829554   1.000000
    2      -17.016749   1.000000
    3      -17.016749   1.000000
    4       -2.459659   1.000000
    5       -2.459659   1.000000
    6       -2.459659   1.000000
    7       -0.488597   1.000000
    8       -0.488597   1.000000
    9       -0.488597   1.000000
   10       -0.318070   1.000000
   11       -0.318070   1.000000
   12       -0.318070   1.000000
   13        1.232057   0.000000
   14        1.232057   0.000000
   15        1.232057   0.000000
   16        6.324988   0.000000
   17        6.324988   0.000000
   18        7.564767   0.000000
   19       15.184489   0.000000
   20       15.184489   0.000000
   21       15.236077   0.000000
   22       17.711349   0.000000
   23       17.711349   0.000000
   24       17.711349   0.000000
   25       22.758622   0.000000
   26       22.758622   0.000000
   27       22.758622   0.000000
   28       25.741917   0.000000
   29       26.301041   0.000000
   30       26.793459   0.000000
   31       26.793459   0.000000
   32       26.793459   0.000000
 
  0.2000000E-01  0.0000000E+00  0.0000000E+00  0.4800000E-04
    1      -17.827437   1.000000
    2      -17.016661   1.000000
    3      -17.014288   1.000000
    4       -2.472223   1.000000
    5       -2.460301   1.000000
    6       -2.460301   1.000000
    7       -0.502694   1.000000
    8       -0.502694   1.000000
    9       -0.489821   1.000000
   10       -0.335620   1.000000
   11       -0.325869   1.000000
   12       -0.325869   1.000000
   13        1.232274   0.000000
   14        1.259732   0.000000
   15        1.259732   0.000000
   16        6.325039   0.000000
   17        6.350229   0.000000
   18        7.572132   0.000000
   19       15.171025   0.000000
   20       15.191003   0.000000
   21       15.238256   0.000000
   22       17.710027   0.000000
   23       17.710027   0.000000
   24       17.732097   0.000000
   25       22.735209   0.000000
   26       22.735209   0.000000
   27       22.742607   0.000000
   28       25.756545   0.000000
   29       26.176679   0.000000
   30       26.819800   0.000000
   31       26.819800   0.000000
   32       26.925891   0.000000
 
  0.4000000E-01  0.0000000E+00  0.0000000E+00  0.4800000E-04
    1      -17.821280   1.000000
    2      -17.016396   1.000000
    3      -17.006857   1.000000
    4       -2.510238   1.000000
    5       -2.462256   1.000000
    6       -2.462256   1.000000
    7       -0.548268   1.000000
    8       -0.548268   1.000000
    9       -0.493476   1.000000
   10       -0.386405   1.000000
   11       -0.341719   1.000000
   12       -0.341719   1.000000
   13        1.232921   0.000000
   14        1.338454   0.000000
   15        1.338454   0.000000
   16        6.325191   0.000000
   17        6.424186   0.000000
   18        7.594327   0.000000
   19       15.124928   0.000000
   20       15.210485   0.000000
   21       15.251972   0.000000
   22       17.706024   0.000000
   23       17.706024   0.000000
   24       17.792887   0.000000
   25       22.666785   0.000000
   26       22.666785   0.000000
   27       22.695861   0.000000
   28       25.798992   0.000000
   29       25.947344   0.000000
   30       26.895993   0.000000
   31       26.895993   0.000000
   32       27.179328   0.000000
 
  0.6000000E-01  0.0000000E+00  0.0000000E+00  0.4800000E-04
    1      -17.811109   1.000000
    2      -17.015958   1.000000
    3      -16.994314   1.000000
    4       -2.574532   1.000000
    5       -2.465591   1.000000
    6       -2.465591   1.000000
    7       -0.626311   1.000000
    8       -0.626311   1.000000
    9       -0.499501   1.000000
   10       -0.465160   1.000000
   11       -0.354626   1.000000
   12       -0.354626   1.000000
   13        1.233989   0.000000
   14        1.458160   0.000000
   15        1.458160   0.000000
   16        6.325445   0.000000
   17        6.541819   0.000000
   18        7.631763   0.000000
   19       15.047503   0.000000
   20       15.242761   0.000000
   21       15.279853   0.000000
   22       17.699624   0.000000
   23       17.699624   0.000000
   24       17.890262   0.000000
   25       22.558207   0.000000
   26       22.558207   0.000000
   27       22.621902   0.000000
   28       25.701302   0.000000
   29       25.865587   0.000000
   30       27.013410   0.000000
   31       27.013410   0.000000
   32       27.465243   0.000000
 
  0.8000000E-01  0.0000000E+00  0.0000000E+00  0.4800000E-04
    1      -17.797449   1.000000
    2      -17.015356   1.000000
    3      -16.976439   1.000000
    4       -2.666233   1.000000
    5       -2.470421   1.000000
    6       -2.470421   1.000000
    7       -0.728503   1.000000
    8       -0.728503   1.000000
    9       -0.564373   1.000000
   10       -0.507789   1.000000
   11       -0.362230   1.000000
   12       -0.362230   1.000000
   13        1.235460   0.000000
   14        1.608023   0.000000
   15        1.608023   0.000000
   16        6.325795   0.000000
   17        6.695508   0.000000
   18        7.685199   0.000000
   19       14.945018   0.000000
   20       15.287535   0.000000
   21       15.320718   0.000000
   22       17.690965   0.000000
   23       17.690965   0.000000
   24       18.019545   0.000000
   25       22.415955   0.000000
   26       22.415955   0.000000
   27       22.525572   0.000000
   28       25.455288   0.000000
   29       25.951083   0.000000
   30       27.155680   0.000000
   31       27.155680   0.000000
   32       27.642042   0.000000
 
  0.1000000E+00  0.0000000E+00  0.0000000E+00  0.4800000E-04
    1      -17.780869   1.000000
    2      -17.014597   1.000000
    3      -16.953004   1.000000
    4       -2.786268   1.000000
    5       -2.476914   1.000000
    6       -2.476914   1.000000
    7       -0.844425   1.000000
    8       -0.844425   1.000000
    9       -0.675667   1.000000
   10       -0.518195   1.000000
   11       -0.366285   1.000000
   12       -0.366285   1.000000
   13        1.237310   0.000000
   14        1.779192   0.000000
   15        1.779192   0.000000
   16        6.326234   0.000000
   17        6.875789   0.000000
   18        7.756048   0.000000
   19       14.823033   0.000000
   20       15.344396   0.000000
   21       15.374141   0.000000
   22       17.680345   0.000000
   23       17.680345   0.000000
   24       18.176078   0.000000
   25       22.246747   0.000000
   26       22.246747   0.000000
   27       22.412091   0.000000
   28       25.213474   0.000000
   29       26.049837   0.000000
   30       27.292404   0.000000
   31       27.292404   0.000000
   32       27.558692   0.000000
 
  0.1200000E+00  0.0000000E+00  0.0000000E+00  0.4800000E-04
    1      -17.762036   1.000000
    2      -17.013874   1.000000
    3      -16.923631   1.000000
    4       -2.934798   1.000000
    5       -2.485289   1.000000
    6       -2.485289   1.000000
    7       -0.966277   1.000000
    8       -0.966277   1.000000
    9       -0.791211   1.000000
   10       -0.530574   1.000000
   11       -0.368321   1.000000
   12       -0.368321   1.000000
   13        1.239511   0.000000
   14        1.965128   0.000000
   15        1.965128   0.000000
   16        6.326744   0.000000
   17        7.071877   0.000000
   18        7.846692   0.000000
   19       14.686124   0.000000
   20       15.412809   0.000000
   21       15.440060   0.000000
   22       17.667929   0.000000
   23       17.667929   0.000000
   24       18.356460   0.000000
   25       22.056597   0.000000
   26       22.056597   0.000000
   27       22.286397   0.000000
   28       24.977184   0.000000
   29       26.156507   0.000000
   30       27.380474   0.000000
   31       27.380474   0.000000
   32       27.456823   0.000000
 
  0.1400000E+00  0.0000000E+00  0.0000000E+00  0.4800000E-04
    1      -17.741621   1.000000
    2      -17.012850   1.000000
    3      -16.888066   1.000000
    4       -3.110697   1.000000
    5       -2.495815   1.000000
    6       -2.495815   1.000000
    7       -1.088781   1.000000
    8       -1.088781   1.000000
    9       -0.904719   1.000000
   10       -0.544643   1.000000
   11       -0.369189   1.000000
   12       -0.369189   1.000000
   13        1.242032   0.000000
   14        2.161168   0.000000
   15        2.161168   0.000000
   16        6.327337   0.000000
   17        7.272164   0.000000
   18        7.960630   0.000000
   19       14.537922   0.000000
   20       15.492118   0.000000
   21       15.518521   0.000000
   22       17.654582   0.000000
   23       17.654582   0.000000
   24       18.557858   0.000000
   25       21.850694   0.000000
   26       21.850694   0.000000
   27       22.152806   0.000000
   28       24.747188   0.000000
   29       26.266490   0.000000
   30       27.341866   0.000000
   31       27.405581   0.000000
   32       27.405581   0.000000
 
  0.1600000E+00  0.0000000E+00  0.0000000E+00  0.4800000E-04
    1      -17.720347   1.000000
    2      -17.011712   1.000000
    3      -16.846050   1.000000
    4       -3.311369   1.000000
    5       -2.508807   1.000000
    6       -2.508807   1.000000
    7       -1.208348   1.000000
    8       -1.208348   1.000000
    9       -1.012022   1.000000
   10       -0.560197   1.000000
   11       -0.369337   1.000000
   12       -0.369337   1.000000
   13        1.244835   0.000000
   14        2.363773   0.000000
   15        2.363773   0.000000
   16        6.327994   0.000000
   17        7.465545   0.000000
   18        8.101584   0.000000
   19       14.381562   0.000000
   20       15.581541   0.000000
   21       15.609567   0.000000
   22       17.640649   0.000000
   23       17.640649   0.000000
   24       18.778786   0.000000
   25       21.633109   0.000000
   26       21.633109   0.000000
   27       22.014939   0.000000
   28       24.524234   0.000000
   29       26.376033   0.000000
   30       27.213186   0.000000
   31       27.389887   0.000000
   32       27.389887   0.000000
 
  0.1800000E+00  0.0000000E+00  0.0000000E+00  0.4800000E-04
    1      -17.698987   1.000000
    2      -17.010568   1.000000
    3      -16.797788   1.000000
    4       -3.532920   1.000000
    5       -2.524611   1.000000
    6       -2.524611   1.000000
    7       -1.322417   1.000000
    8       -1.322417   1.000000
    9       -1.110996   1.000000
   10       -0.577004   1.000000
   11       -0.369026   1.000000
   12       -0.369026   1.000000
   13        1.247871   0.000000
   14        2.570167   0.000000
   15        2.570167   0.000000
   16        6.328703   0.000000
   17        7.643513   0.000000
   18        8.270629   0.000000
   19       14.218613   0.000000
   20       15.680156   0.000000
   21       15.712967   0.000000
   22       17.626703   0.000000
   23       17.626703   0.000000
   24       19.016874   0.000000
   25       21.407090   0.000000
   26       21.407090   0.000000
   27       21.875758   0.000000
   28       24.306642   0.000000
   29       26.482263   0.000000
   30       27.070992   0.000000
   31       27.351876   0.000000
   32       27.351876   0.000000
 
  0.2000000E+00  0.0000000E+00  0.0000000E+00  0.4800000E-04
    1      -17.678094   1.000000
    2      -17.009261   1.000000
    3      -16.743168   1.000000
    4       -3.770582   1.000000
    5       -2.543573   1.000000
    6       -2.543573   1.000000
    7       -1.429084   1.000000
    8       -1.429084   1.000000
    9       -1.200963   1.000000
   10       -0.594727   1.000000
   11       -0.368403   1.000000
   12       -0.368403   1.000000
   13        1.251098   0.000000
   14        2.778039   0.000000
   15        2.778039   0.000000
   16        6.329456   0.000000
   17        7.804771   0.000000
   18        8.463227   0.000000
   19       14.051167   0.000000
   20       15.786923   0.000000
   21       15.828446   0.000000
   22       17.613420   0.000000
   23       17.613420   0.000000
   24       19.272070   0.000000
   25       21.175341   0.000000
   26       21.175341   0.000000
   27       21.737670   0.000000
   28       24.095351   0.000000
   29       26.583111   0.000000
   30       26.919792   0.000000
   31       27.301359   0.000000
   32       27.301359   0.000000
 
  0.2200000E+00  0.0000000E+00  0.0000000E+00  0.4800000E-04
    1      -17.658144   1.000000
    2      -17.007896   1.000000
    3      -16.682652   1.000000
    4       -4.019237   1.000000
    5       -2.565980   1.000000
    6       -2.565980   1.000000
    7       -1.526940   1.000000
    8       -1.526940   1.000000
    9       -1.282185   1.000000
   10       -0.613103   1.000000
   11       -0.367564   1.000000
   12       -0.367564   1.000000
   13        1.254466   0.000000
   14        2.985332   0.000000
   15        2.985332   0.000000
   16        6.330240   0.000000
   17        7.952991   0.000000
   18        8.670256   0.000000
   19       13.880686   0.000000
   20       15.900647   0.000000
   21       15.955416   0.000000
   22       17.601522   0.000000
   23       17.601522   0.000000
   24       19.543929   0.000000
   25       20.940119   0.000000
   26       20.940119   0.000000
   27       21.602625   0.000000
   28       23.890299   0.000000
   29       26.677201   0.000000
   30       26.760153   0.000000
   31       27.243049   0.000000
   32       27.243049   0.000000
 
  0.2400000E+00  0.0000000E+00  0.0000000E+00  0.4800000E-04
    1      -17.639627   1.000000
    2      -17.006676   1.000000
    3      -16.617197   1.000000
    4       -4.273832   1.000000
    5       -2.591985   1.000000
    6       -2.591985   1.000000
    7       -1.615041   1.000000
    8       -1.615041   1.000000
    9       -1.355383   1.000000
   10       -0.631858   1.000000
   11       -0.366603   1.000000
   12       -0.366603   1.000000
   13        1.257904   0.000000
   14        3.190115   0.000000
   15        3.190115   0.000000
   16        6.330955   0.000000
   17        8.093093   0.000000
   18        8.882030   0.000000
   19       13.708206   0.000000
   20       16.020053   0.000000
   21       16.092961   0.000000
   22       17.591423   0.000000
   23       17.591423   0.000000
   24       19.831887   0.000000
   25       20.703307   0.000000
   26       20.703307   0.000000
   27       21.472169   0.000000
   28       23.691287   0.000000
   29       26.593190   0.000000
   30       26.763620   0.000000
   31       27.178221   0.000000
   32       27.178221   0.000000
 
  0.2600000E+00  0.0000000E+00  0.0000000E+00  0.4800000E-04
    1      -17.622481   1.000000
    2      -17.005275   1.000000
    3      -16.547045   1.000000
    4       -4.529601   1.000000
    5       -2.621510   1.000000
    6       -2.621510   1.000000
    7       -1.692739   1.000000
    8       -1.692739   1.000000
    9       -1.421286   1.000000
   10       -0.650663   1.000000
   11       -0.365529   1.000000
   12       -0.365529   1.000000
   13        1.261389   0.000000
   14        3.390523   0.000000
   15        3.390523   0.000000
   16        6.331758   0.000000
   17        8.228760   0.000000
   18        9.090787   0.000000
   19       13.535383   0.000000
   20       16.143481   0.000000
   21       16.239735   0.000000
   22       17.584647   0.000000
   23       17.584647   0.000000
   24       20.136399   0.000000
   25       20.466909   0.000000
   26       20.466909   0.000000
   27       21.347679   0.000000
   28       23.499193   0.000000
   29       26.423047   0.000000
   30       26.842180   0.000000
   31       27.112096   0.000000
   32       27.112096   0.000000
 
  0.2800000E+00  0.0000000E+00  0.0000000E+00  0.4800000E-04
    1      -17.606815   1.000000
    2      -17.003806   1.000000
    3      -16.473458   1.000000
    4       -4.782155   1.000000
    5       -2.654174   1.000000
    6       -2.654174   1.000000
    7       -1.759947   1.000000
    8       -1.759947   1.000000
    9       -1.480612   1.000000
   10       -0.669223   1.000000
   11       -0.364392   1.000000
   12       -0.364392   1.000000
   13        1.264853   0.000000
   14        3.584793   0.000000
   15        3.584793   0.000000
   16        6.332635   0.000000
   17        8.362038   0.000000
   18        9.291170   0.000000
   19       13.363393   0.000000
   20       16.269379   0.000000
   21       16.394202   0.000000
   22       17.582026   0.000000
   23       17.582026   0.000000
   24       20.232915   0.000000
   25       20.232915   0.000000
   26       20.456955   0.000000
   27       21.230200   0.000000
   28       23.314841   0.000000
   29       26.251446   0.000000
   30       26.912781   0.000000
   31       27.045217   0.000000
   32       27.045217   0.000000
 
  0.3000000E+00  0.0000000E+00  0.0000000E+00  0.4800000E-04
    1      -17.593012   1.000000
    2      -17.002448   1.000000
    3      -16.398253   1.000000
    4       -5.027490   1.000000
    5       -2.689275   1.000000
    6       -2.689275   1.000000
    7       -1.817013   1.000000
    8       -1.817013   1.000000
    9       -1.533953   1.000000
   10       -0.687269   1.000000
   11       -0.363279   1.000000
   12       -0.363279   1.000000
   13        1.268193   0.000000
   14        3.770844   0.000000
   15        3.770844   0.000000
   16        6.333412   0.000000
   17        8.493319   0.000000
   18        9.479343   0.000000
   19       13.192709   0.000000
   20       16.395833   0.000000
   21       16.553720   0.000000
   22       17.583748   0.000000
   23       17.583748   0.000000
   24       20.002329   0.000000
   25       20.002329   0.000000
   26       20.792435   0.000000
   27       21.120578   0.000000
   28       23.137740   0.000000
   29       26.080346   0.000000
   30       26.975503   0.000000
   31       26.977494   0.000000
   32       26.977494   0.000000
 
  0.3200000E+00  0.0000000E+00  0.0000000E+00  0.4800000E-04
    1      -17.580611   1.000000
    2      -17.001139   1.000000
    3      -16.322478   1.000000
    4       -5.261906   1.000000
    5       -2.725801   1.000000
    6       -2.725801   1.000000
    7       -1.864599   1.000000
    8       -1.864599   1.000000
    9       -1.581708   1.000000
   10       -0.704508   1.000000
   11       -0.362157   1.000000
   12       -0.362157   1.000000
   13        1.271443   0.000000
   14        3.947013   0.000000
   15        3.947013   0.000000
   16        6.334158   0.000000
   17        8.622437   0.000000
   18        9.653423   0.000000
   19       13.025430   0.000000
   20       16.520861   0.000000
   21       16.716199   0.000000
   22       17.591122   0.000000
   23       17.591122   0.000000
   24       19.777341   0.000000
   25       19.777341   0.000000
   26       21.019570   0.000000
   27       21.141841   0.000000
   28       22.971217   0.000000
   29       25.912738   0.000000
   30       26.912586   0.000000
   31       26.912586   0.000000
   32       27.030692   0.000000
 
  0.3400000E+00  0.0000000E+00  0.0000000E+00  0.4800000E-04
    1      -17.569894   1.000000
    2      -16.999687   1.000000
    3      -16.247830   1.000000
    4       -5.482061   1.000000
    5       -2.762539   1.000000
    6       -2.762539   1.000000
    7       -1.903656   1.000000
    8       -1.903656   1.000000
    9       -1.624170   1.000000
   10       -0.720671   1.000000
   11       -0.361080   1.000000
   12       -0.361080   1.000000
   13        1.274513   0.000000
   14        4.111352   0.000000
   15        4.111352   0.000000
   16        6.334863   0.000000
   17        8.748395   0.000000
   18        9.811497   0.000000
   19       12.862891   0.000000
   20       16.642422   0.000000
   21       16.878139   0.000000
   22       17.605175   0.000000
   23       17.605175   0.000000
   24       19.559799   0.000000
   25       19.559799   0.000000
   26       20.927788   0.000000
   27       21.501220   0.000000
   28       22.819095   0.000000
   29       25.751573   0.000000
   30       26.851004   0.000000
   31       26.851004   0.000000
   32       27.078730   0.000000
 
  0.3600000E+00  0.0000000E+00  0.0000000E+00  0.4800000E-04
    1      -17.560824   1.000000
    2      -16.998633   1.000000
    3      -16.176384   1.000000
    4       -5.684815   1.000000
    5       -2.798255   1.000000
    6       -2.798255   1.000000
    7       -1.935264   1.000000
    8       -1.935264   1.000000
    9       -1.661538   1.000000
   10       -0.735543   1.000000
   11       -0.360096   1.000000
   12       -0.360096   1.000000
   13        1.277310   0.000000
   14        4.261937   0.000000
   15        4.261937   0.000000
   16        6.335418   0.000000
   17        8.869553   0.000000
   18        9.952777   0.000000
   19       12.706808   0.000000
   20       16.757887   0.000000
   21       17.035993   0.000000
   22       17.626016   0.000000
   23       17.626016   0.000000
   24       19.350950   0.000000
   25       19.350950   0.000000
   26       20.845725   0.000000
   27       21.858872   0.000000
   28       22.693523   0.000000
   29       25.599405   0.000000
   30       26.793137   0.000000
   31       26.793137   0.000000
   32       27.119893   0.000000
 
  0.3800000E+00  0.0000000E+00  0.0000000E+00  0.4800000E-04
    1      -17.553117   1.000000
    2      -16.997611   1.000000
    3      -16.109498   1.000000
    4       -5.867254   1.000000
    5       -2.831700   1.000000
    6       -2.831700   1.000000
    7       -1.960450   1.000000
    8       -1.960450   1.000000
    9       -1.693889   1.000000
   10       -0.748891   1.000000
   11       -0.359185   1.000000
   12       -0.359185   1.000000
   13        1.279867   0.000000
   14        4.397005   0.000000
   15        4.397005   0.000000
   16        6.335989   0.000000
   17        8.983947   0.000000
   18       10.077327   0.000000
   19       12.559586   0.000000
   20       16.864970   0.000000
   21       17.185990   0.000000
   22       17.655036   0.000000
   23       17.655036   0.000000
   24       19.153253   0.000000
   25       19.153253   0.000000
   26       20.773837   0.000000
   27       22.158753   0.000000
   28       22.651378   0.000000
   29       25.459418   0.000000
   30       26.741415   0.000000
   31       26.741415   0.000000
   32       28.204716   0.000000
 
  0.4000000E+00  0.0000000E+00  0.0000000E+00  0.4800000E-04
    1      -17.546738   1.000000
    2      -16.996711   1.000000
    3      -16.049178   1.000000
    4       -6.026741   1.000000
    5       -2.861785   1.000000
    6       -2.861785   1.000000
    7       -1.980185   1.000000
    8       -1.980185   1.000000
    9       -1.721271   1.000000
   10       -0.760524   1.000000
   11       -0.358379   1.000000
   12       -0.358379   1.000000
   13        1.282105   0.000000
   14        4.514801   0.000000
   15        4.514801   0.000000
   16        6.336494   0.000000
   17        9.088885   0.000000
   18       10.184983   0.000000
   19       12.423686   0.000000
   20       16.961177   0.000000
   21       17.323716   0.000000
   22       17.692342   0.000000
   23       17.692342   0.000000
   24       18.968559   0.000000
   25       18.968559   0.000000
   26       20.712458   0.000000
   27       22.239762   0.000000
   28       22.853671   0.000000
   29       25.334559   0.000000
   30       26.696103   0.000000
   31       26.696103   0.000000
   32       27.183962   0.000000
 
  0.4200000E+00  0.0000000E+00  0.0000000E+00  0.4800000E-04
    1      -17.541522   1.000000
    2      -16.996122   1.000000
    3      -15.997063   1.000000
    4       -6.160854   1.000000
    5       -2.887597   1.000000
    6       -2.887597   1.000000
    7       -1.995290   1.000000
    8       -1.995290   1.000000
    9       -1.743699   1.000000
   10       -0.770280   1.000000
   11       -0.357696   1.000000
   12       -0.357696   1.000000
   13        1.283959   0.000000
   14        4.613688   0.000000
   15        4.613688   0.000000
   16        6.336885   0.000000
   17        9.181493   0.000000
   18       10.275443   0.000000
   19       12.303108   0.000000
   20       17.044012   0.000000
   21       17.445134   0.000000
   22       17.737448   0.000000
   23       17.737448   0.000000
   24       18.799057   0.000000
   25       18.799057   0.000000
   26       20.661840   0.000000
   27       22.181554   0.000000
   28       23.221125   0.000000
   29       25.227642   0.000000
   30       26.657609   0.000000
   31       26.657609   0.000000
   32       27.219969   0.000000
 
  0.4400000E+00  0.0000000E+00  0.0000000E+00  0.4800000E-04
    1      -17.537454   1.000000
    2      -16.995504   1.000000
    3      -15.954602   1.000000
    4       -6.267506   1.000000
    5       -2.908389   1.000000
    6       -2.908389   1.000000
    7       -2.006391   1.000000
    8       -2.006391   1.000000
    9       -1.761167   1.000000
   10       -0.778007   1.000000
   11       -0.357142   1.000000
   12       -0.357142   1.000000
   13        1.285456   0.000000
   14        4.692269   0.000000
   15        4.692269   0.000000
   16        6.337249   0.000000
   17        9.258469   0.000000
   18       10.348097   0.000000
   19       12.201793   0.000000
   20       17.111292   0.000000
   21       17.545689   0.000000
   22       17.789243   0.000000
   23       17.789243   0.000000
   24       18.648723   0.000000
   25       18.648723   0.000000
   26       20.622273   0.000000
   27       22.108864   0.000000
   28       23.625533   0.000000
   29       25.141357   0.000000
   30       26.627554   0.000000
   31       26.627554   0.000000
   32       26.742419   0.000000
 
  0.4600000E+00  0.0000000E+00  0.0000000E+00  0.4800000E-04
    1      -17.534572   1.000000
    2      -16.995179   1.000000
    3      -15.923306   1.000000
    4       -6.344987   1.000000
    5       -2.923615   1.000000
    6       -2.923615   1.000000
    7       -2.013992   1.000000
    8       -2.013992   1.000000
    9       -1.773666   1.000000
   10       -0.783628   1.000000
   11       -0.356742   1.000000
   12       -0.356742   1.000000
   13        1.286550   0.000000
   14        4.749284   0.000000
   15        4.749284   0.000000
   16        6.337467   0.000000
   17        9.316428   0.000000
   18       10.401941   0.000000
   19       12.124299   0.000000
   20       17.160638   0.000000
   21       17.621048   0.000000
   22       17.843114   0.000000
   23       17.843114   0.000000
   24       18.523165   0.000000
   25       18.523165   0.000000
   26       20.593894   0.000000
   27       22.049362   0.000000
   28       24.028302   0.000000
   29       25.077776   0.000000
   30       26.292017   0.000000
   31       26.605564   0.000000
   32       26.605564   0.000000
 
  0.4800000E+00  0.0000000E+00  0.0000000E+00  0.4800000E-04
    1      -17.532892   1.000000
    2      -16.995077   1.000000
    3      -15.904191   1.000000
    4       -6.392048   1.000000
    5       -2.932903   1.000000
    6       -2.932903   1.000000
    7       -2.018422   1.000000
    8       -2.018422   1.000000
    9       -1.781170   1.000000
   10       -0.787072   1.000000
   11       -0.356502   1.000000
   12       -0.356502   1.000000
   13        1.287206   0.000000
   14        4.783846   0.000000
   15        4.783846   0.000000
   16        6.337608   0.000000
   17        9.352403   0.000000
   18       10.435132   0.000000
   19       12.075245   0.000000
   20       17.190498   0.000000
   21       17.667313   0.000000
   22       17.888758   0.000000
   23       17.888758   0.000000
   24       18.433954   0.000000
   25       18.433954   0.000000
   26       20.576818   0.000000
   27       22.011284   0.000000
   28       24.381915   0.000000
   29       25.038676   0.000000
   30       25.910614   0.000000
   31       26.592282   0.000000
   32       26.592284   0.000000
 
  0.5000000E+00  0.0000000E+00  0.0000000E+00  0.2400000E-04
    1      -17.532330   1.000000
    2      -16.994990   1.000000
    3      -15.897709   1.000000
    4       -6.407811   1.000000
    5       -2.936023   1.000000
    6       -2.936023   1.000000
    7       -2.019877   1.000000
    8       -2.019877   1.000000
    9       -1.783672   1.000000
   10       -0.788213   1.000000
   11       -0.356421   1.000000
   12       -0.356421   1.000000
   13        1.287427   0.000000
   14        4.795429   0.000000
   15        4.795429   0.000000
   16        6.337659   0.000000
   17        9.364672   0.000000
   18       10.446402   0.000000
   19       12.058493   0.000000
   20       17.200742   0.000000
   21       17.683161   0.000000
   22       17.907975   0.000000
   23       17.907975   0.000000
   24       18.400169   0.000000
   25       18.400169   0.000000
   26       20.571119   0.000000
   27       21.998244   0.000000
   28       24.549491   0.000000
   29       25.025642   0.000000
   30       25.733966   0.000000
   31       26.587837   0.000000
   32       26.587838   0.000000
 
  0.2000000E-01  0.2000000E-01  0.0000000E+00  0.9600000E-04
    1      -17.825370   1.000000
    2      -17.015383   1.000000
    3      -17.013022   1.000000
    4       -2.474438   1.000000
    5       -2.471295   1.000000
    6       -2.460941   1.000000
    7       -0.521938   1.000000
    8       -0.515435   1.000000
    9       -0.487135   1.000000
   10       -0.348680   1.000000
   11       -0.335909   1.000000
   12       -0.335014   1.000000
   13        1.256721   0.000000
   14        1.263157   0.000000
   15        1.286396   0.000000
   16        6.337673   0.000000
   17        6.362911   0.000000
   18        7.579465   0.000000
   19       15.169643   0.000000